# vtk DataFile Version 3.0
#This file was generated by the deal.II library on 2016/4/27 at 18:59:46
ASCII
DATASET UNSTRUCTURED_GRID

POINTS 4 double
0 0 0
1 0 0
1 0 0
2 0 0

CELLS 2 6
2	0	1
2	2	3

CELL_TYPES 2
 3 3
POINT_DATA 4
SCALARS Phi1 double 1
LOOKUP_TABLE default
2.1088 3.83304 3.83304 2.1088 
SCALARS Phi2 double 1
LOOKUP_TABLE default
0.495553 0.900744 0.900744 0.495553 
SCALARS Neutronic_Power double 1
LOOKUP_TABLE default
1 1 1 1 
SCALARS Material_id double 1
LOOKUP_TABLE default
0 0 0 0 
SCALARS Neutronic_Power double 1
LOOKUP_TABLE default
1 1 1 1 
SCALARS Material_id double 1
LOOKUP_TABLE default
0 0 0 0 
